# vtk DataFile Version 2.0
Image Simulation Result
ASCII
DATASET STRUCTURED_GRID
DIMENSIONS 80 80 1
POINTS 6400 float
0 0 0
1 0 0
2 0 0
3 0 0
4 0 0
5 0 0
6 0 0
7 0 0
8 0 0
9 0 0
10 0 0
11 0 0
12 0 0
13 0 0
14 0 0
15 0 0
16 0 0
17 0 0
18 0 0
19 0 0
20 0 0
21 0 0
22 0 0
23 0 0
24 0 0
25 0 0
26 0 0
27 0 0
28 0 0
29 0 0
30 0 0
31 0 0
32 0 0
33 0 0
34 0 0
35 0 0
36 0 0
37 0 0
38 0 0
39 0 0
40 0 0
41 0 0
42 0 0
43 0 0
44 0 0
45 0 0
46 0 0
47 0 0
48 0 0
49 0 0
50 0 0
51 0 0
52 0 0
53 0 0
54 0 0
55 0 0
56 0 0
57 0 0
58 0 0
59 0 0
60 0 0
61 0 0
62 0 0
63 0 0
64 0 0
65 0 0
66 0 0
67 0 0
68 0 0
69 0 0
70 0 0
71 0 0
72 0 0
73 0 0
74 0 0
75 0 0
76 0 0
77 0 0
78 0 0
79 0 0
0 1 0
1 1 0
2 1 0
3 1 0
4 1 0
5 1 0
6 1 0
7 1 0
8 1 0
9 1 0
10 1 0
11 1 0
12 1 0
13 1 0
14 1 0
15 1 0
16 1 0
17 1 0
18 1 0
19 1 0
20 1 0
21 1 0
22 1 0
23 1 0
24 1 0
25 1 0
26 1 0
27 1 0
28 1 0
29 1 0
30 1 0
31 1 0
32 1 0
33 1 0
34 1 0
35 1 0
36 1 0
37 1 0
38 1 0
39 1 0
40 1 0
41 1 0
42 1 0
43 1 0
44 1 0
45 1 0
46 1 0
47 1 0
48 1 0
49 1 0
50 1 0
51 1 0
52 1 0
53 1 0
54 1 0
55 1 0
56 1 0
57 1 0
58 1 0
59 1 0
60 1 0
61 1 0
62 1 0
63 1 0
64 1 0
65 1 0
66 1 0
67 1 0
68 1 0
69 1 0
70 1 0
71 1 0
72 1 0
73 1 0
74 1 0
75 1 0
76 1 0
77 1 0
78 1 0
79 1 0
0 2 0
1 2 0
2 2 0
3 2 0
4 2 0
5 2 0
6 2 0
7 2 0
8 2 0
9 2 0
10 2 0
11 2 0
12 2 0
13 2 0
14 2 0
15 2 0
16 2 0
17 2 0
18 2 0
19 2 0
20 2 0
21 2 0
22 2 0
23 2 0
24 2 0
25 2 0
26 2 0
27 2 0
28 2 0
29 2 0
30 2 0
31 2 0
32 2 0
33 2 0
34 2 0
35 2 0
36 2 0
37 2 0
38 2 0
39 2 0
40 2 0
41 2 0
42 2 0
43 2 0
44 2 0
45 2 0
46 2 0
47 2 0
48 2 0
49 2 0
50 2 0
51 2 0
52 2 0
53 2 0
54 2 0
55 2 0
56 2 0
57 2 0
58 2 0
59 2 0
60 2 0
61 2 0
62 2 0
63 2 0
64 2 0
65 2 0
66 2 0
67 2 0
68 2 0
69 2 0
70 2 0
71 2 0
72 2 0
73 2 0
74 2 0
75 2 0
76 2 0
77 2 0
78 2 0
79 2 0
0 3 0
1 3 0
2 3 0
3 3 0
4 3 0
5 3 0
6 3 0
7 3 0
8 3 0
9 3 0
10 3 0
11 3 0
12 3 0
13 3 0
14 3 0
15 3 0
16 3 0
17 3 0
18 3 0
19 3 0
20 3 0
21 3 0
22 3 0
23 3 0
24 3 0
25 3 0
26 3 0
27 3 0
28 3 0
29 3 0
30 3 0
31 3 0
32 3 0
33 3 0
34 3 0
35 3 0
36 3 0
37 3 0
38 3 0
39 3 0
40 3 0
41 3 0
42 3 0
43 3 0
44 3 0
45 3 0
46 3 0
47 3 0
48 3 0
49 3 0
50 3 0
51 3 0
52 3 0
53 3 0
54 3 0
55 3 0
56 3 0
57 3 0
58 3 0
59 3 0
60 3 0
61 3 0
62 3 0
63 3 0
64 3 0
65 3 0
66 3 0
67 3 0
68 3 0
69 3 0
70 3 0
71 3 0
72 3 0
73 3 0
74 3 0
75 3 0
76 3 0
77 3 0
78 3 0
79 3 0
0 4 0
1 4 0
2 4 0
3 4 0
4 4 0
5 4 0
6 4 0
7 4 0
8 4 0
9 4 0
10 4 0
11 4 0
12 4 0
13 4 0
14 4 0
15 4 0
16 4 0
17 4 0
18 4 0
19 4 0
20 4 0
21 4 0
22 4 0
23 4 0
24 4 0
25 4 0
26 4 0
27 4 0
28 4 0
29 4 0
30 4 0
31 4 0
32 4 0
33 4 0
34 4 0
35 4 0
36 4 0
37 4 0
38 4 0
39 4 0
40 4 0
41 4 0
42 4 0
43 4 0
44 4 0
45 4 0
46 4 0
47 4 0
48 4 0
49 4 0
50 4 0
51 4 0
52 4 0
53 4 0
54 4 0
55 4 0
56 4 0
57 4 0
58 4 0
59 4 0
60 4 0
61 4 0
62 4 0
63 4 0
64 4 0
65 4 0
66 4 0
67 4 0
68 4 0
69 4 0
70 4 0
71 4 0
72 4 0
73 4 0
74 4 0
75 4 0
76 4 0
77 4 0
78 4 0
79 4 0
0 5 0
1 5 0
2 5 0
3 5 0
4 5 0
5 5 0
6 5 0
7 5 0
8 5 0
9 5 0
10 5 0
11 5 0
12 5 0
13 5 0
14 5 0
15 5 0
16 5 0
17 5 0
18 5 0
19 5 0
20 5 0
21 5 0
22 5 0
23 5 0
24 5 0
25 5 0
26 5 0
27 5 0
28 5 0
29 5 0
30 5 0
31 5 0
32 5 0
33 5 0
34 5 0
35 5 0
36 5 0
37 5 0
38 5 0
39 5 0
40 5 0
41 5 0
42 5 0
43 5 0
44 5 0
45 5 0
46 5 0
47 5 0
48 5 0
49 5 0
50 5 0
51 5 0
52 5 0
53 5 0
54 5 0
55 5 0
56 5 0
57 5 0
58 5 0
59 5 0
60 5 0
61 5 0
62 5 0
63 5 0
64 5 0
65 5 0
66 5 0
67 5 0
68 5 0
69 5 0
70 5 0
71 5 0
72 5 0
73 5 0
74 5 0
75 5 0
76 5 0
77 5 0
78 5 0
79 5 0
0 6 0
1 6 0
2 6 0
3 6 0
4 6 0
5 6 0
6 6 0
7 6 0
8 6 0
9 6 0
10 6 0
11 6 0
12 6 0
13 6 0
14 6 0
15 6 0
16 6 0
17 6 0
18 6 0
19 6 0
20 6 0
21 6 0
22 6 0
23 6 0
24 6 0
25 6 0
26 6 0
27 6 0
28 6 0
29 6 0
30 6 0
31 6 0
32 6 0
33 6 0
34 6 0
35 6 0
36 6 0
37 6 0
38 6 0
39 6 0
40 6 0
41 6 0
42 6 0
43 6 0
44 6 0
45 6 0
46 6 0
47 6 0
48 6 0
49 6 0
50 6 0
51 6 0
52 6 0
53 6 0
54 6 0
55 6 0
56 6 0
57 6 0
58 6 0
59 6 0
60 6 0
61 6 0
62 6 0
63 6 0
64 6 0
65 6 0
66 6 0
67 6 0
68 6 0
69 6 0
70 6 0
71 6 0
72 6 0
73 6 0
74 6 0
75 6 0
76 6 0
77 6 0
78 6 0
79 6 0
0 7 0
1 7 0
2 7 0
3 7 0
4 7 0
5 7 0
6 7 0
7 7 0
8 7 0
9 7 0
10 7 0
11 7 0
12 7 0
13 7 0
14 7 0
15 7 0
16 7 0
17 7 0
18 7 0
19 7 0
20 7 0
21 7 0
22 7 0
23 7 0
24 7 0
25 7 0
26 7 0
27 7 0
28 7 0
29 7 0
30 7 0
31 7 0
32 7 0
33 7 0
34 7 0
35 7 0
36 7 0
37 7 0
38 7 0
39 7 0
40 7 0
41 7 0
42 7 0
43 7 0
44 7 0
45 7 0
46 7 0
47 7 0
48 7 0
49 7 0
50 7 0
51 7 0
52 7 0
53 7 0
54 7 0
55 7 0
56 7 0
57 7 0
58 7 0
59 7 0
60 7 0
61 7 0
62 7 0
63 7 0
64 7 0
65 7 0
66 7 0
67 7 0
68 7 0
69 7 0
70 7 0
71 7 0
72 7 0
73 7 0
74 7 0
75 7 0
76 7 0
77 7 0
78 7 0
79 7 0
0 8 0
1 8 0
2 8 0
3 8 0
4 8 0
5 8 0
6 8 0
7 8 0
8 8 0
9 8 0
10 8 0
11 8 0
12 8 0
13 8 0
14 8 0
15 8 0
16 8 0
17 8 0
18 8 0
19 8 0
20 8 0
21 8 0
22 8 0
23 8 0
24 8 0
25 8 0
26 8 0
27 8 0
28 8 0
29 8 0
30 8 0
31 8 0
32 8 0
33 8 0
34 8 0
35 8 0
36 8 0
37 8 0
38 8 0
39 8 0
40 8 0
41 8 0
42 8 0
43 8 0
44 8 0
45 8 0
46 8 0
47 8 0
48 8 0
49 8 0
50 8 0
51 8 0
52 8 0
53 8 0
54 8 0
55 8 0
56 8 0
57 8 0
58 8 0
59 8 0
60 8 0
61 8 0
62 8 0
63 8 0
64 8 0
65 8 0
66 8 0
67 8 0
68 8 0
69 8 0
70 8 0
71 8 0
72 8 0
73 8 0
74 8 0
75 8 0
76 8 0
77 8 0
78 8 0
79 8 0
0 9 0
1 9 0
2 9 0
3 9 0
4 9 0
5 9 0
6 9 0
7 9 0
8 9 0
9 9 0
10 9 0
11 9 0
12 9 0
13 9 0
14 9 0
15 9 0
16 9 0
17 9 0
18 9 0
19 9 0
20 9 0
21 9 0
22 9 0
23 9 0
24 9 0
25 9 0
26 9 0
27 9 0
28 9 0
29 9 0
30 9 0
31 9 0
32 9 0
33 9 0
34 9 0
35 9 0
36 9 0
37 9 0
38 9 0
39 9 0
40 9 0
41 9 0
42 9 0
43 9 0
44 9 0
45 9 0
46 9 0
47 9 0
48 9 0
49 9 0
50 9 0
51 9 0
52 9 0
53 9 0
54 9 0
55 9 0
56 9 0
57 9 0
58 9 0
59 9 0
60 9 0
61 9 0
62 9 0
63 9 0
64 9 0
65 9 0
66 9 0
67 9 0
68 9 0
69 9 0
70 9 0
71 9 0
72 9 0
73 9 0
74 9 0
75 9 0
76 9 0
77 9 0
78 9 0
79 9 0
0 10 0
1 10 0
2 10 0
3 10 0
4 10 0
5 10 0
6 10 0
7 10 0
8 10 0
9 10 0
10 10 0
11 10 0
12 10 0
13 10 0
14 10 0
15 10 0
16 10 0
17 10 0
18 10 0
19 10 0
20 10 0
21 10 0
22 10 0
23 10 0
24 10 0
25 10 0
26 10 0
27 10 0
28 10 0
29 10 0
30 10 0
31 10 0
32 10 0
33 10 0
34 10 0
35 10 0
36 10 0
37 10 0
38 10 0
39 10 0
40 10 0
41 10 0
42 10 0
43 10 0
44 10 0
45 10 0
46 10 0
47 10 0
48 10 0
49 10 0
50 10 0
51 10 0
52 10 0
53 10 0
54 10 0
55 10 0
56 10 0
57 10 0
58 10 0
59 10 0
60 10 0
61 10 0
62 10 0
63 10 0
64 10 0
65 10 0
66 10 0
67 10 0
68 10 0
69 10 0
70 10 0
71 10 0
72 10 0
73 10 0
74 10 0
75 10 0
76 10 0
77 10 0
78 10 0
79 10 0
0 11 0
1 11 0
2 11 0
3 11 0
4 11 0
5 11 0
6 11 0
7 11 0
8 11 0
9 11 0
10 11 0
11 11 0
12 11 0
13 11 0
14 11 0
15 11 0
16 11 0
17 11 0
18 11 0
19 11 0
20 11 0
21 11 0
22 11 0
23 11 0
24 11 0
25 11 0
26 11 0
27 11 0
28 11 0
29 11 0
30 11 0
31 11 0
32 11 0
33 11 0
34 11 0
35 11 0
36 11 0
37 11 0
38 11 0
39 11 0
40 11 0
41 11 0
42 11 0
43 11 0
44 11 0
45 11 0
46 11 0
47 11 0
48 11 0
49 11 0
50 11 0
51 11 0
52 11 0
53 11 0
54 11 0
55 11 0
56 11 0
57 11 0
58 11 0
59 11 0
60 11 0
61 11 0
62 11 0
63 11 0
64 11 0
65 11 0
66 11 0
67 11 0
68 11 0
69 11 0
70 11 0
71 11 0
72 11 0
73 11 0
74 11 0
75 11 0
76 11 0
77 11 0
78 11 0
79 11 0
0 12 0
1 12 0
2 12 0
3 12 0
4 12 0
5 12 0
6 12 0
7 12 0
8 12 0
9 12 0
10 12 0
11 12 0
12 12 0
13 12 0
14 12 0
15 12 0
16 12 0
17 12 0
18 12 0
19 12 0
20 12 0
21 12 0
22 12 0
23 12 0
24 12 0
25 12 0
26 12 0
27 12 0
28 12 0
29 12 0
30 12 0
31 12 0
32 12 0
33 12 0
34 12 0
35 12 0
36 12 0
37 12 0
38 12 0
39 12 0
40 12 0
41 12 0
42 12 0
43 12 0
44 12 0
45 12 0
46 12 0
47 12 0
48 12 0
49 12 0
50 12 0
51 12 0
52 12 0
53 12 0
54 12 0
55 12 0
56 12 0
57 12 0
58 12 0
59 12 0
60 12 0
61 12 0
62 12 0
63 12 0
64 12 0
65 12 0
66 12 0
67 12 0
68 12 0
69 12 0
70 12 0
71 12 0
72 12 0
73 12 0
74 12 0
75 12 0
76 12 0
77 12 0
78 12 0
79 12 0
0 13 0
1 13 0
2 13 0
3 13 0
4 13 0
5 13 0
6 13 0
7 13 0
8 13 0
9 13 0
10 13 0
11 13 0
12 13 0
13 13 0
14 13 0
15 13 0
16 13 0
17 13 0
18 13 0
19 13 0
20 13 0
21 13 0
22 13 0
23 13 0
24 13 0
25 13 0
26 13 0
27 13 0
28 13 0
29 13 0
30 13 0
31 13 0
32 13 0
33 13 0
34 13 0
35 13 0
36 13 0
37 13 0
38 13 0
39 13 0
40 13 0
41 13 0
42 13 0
43 13 0
44 13 0
45 13 0
46 13 0
47 13 0
48 13 0
49 13 0
50 13 0
51 13 0
52 13 0
53 13 0
54 13 0
55 13 0
56 13 0
57 13 0
58 13 0
59 13 0
60 13 0
61 13 0
62 13 0
63 13 0
64 13 0
65 13 0
66 13 0
67 13 0
68 13 0
69 13 0
70 13 0
71 13 0
72 13 0
73 13 0
74 13 0
75 13 0
76 13 0
77 13 0
78 13 0
79 13 0
0 14 0
1 14 0
2 14 0
3 14 0
4 14 0
5 14 0
6 14 0
7 14 0
8 14 0
9 14 0
10 14 0
11 14 0
12 14 0
13 14 0
14 14 0
15 14 0
16 14 0
17 14 0
18 14 0
19 14 0
20 14 0
21 14 0
22 14 0
23 14 0
24 14 0
25 14 0
26 14 0
27 14 0
28 14 0
29 14 0
30 14 0
31 14 0
32 14 0
33 14 0
34 14 0
35 14 0
36 14 0
37 14 0
38 14 0
39 14 0
40 14 0
41 14 0
42 14 0
43 14 0
44 14 0
45 14 0
46 14 0
47 14 0
48 14 0
49 14 0
50 14 0
51 14 0
52 14 0
53 14 0
54 14 0
55 14 0
56 14 0
57 14 0
58 14 0
59 14 0
60 14 0
61 14 0
62 14 0
63 14 0
64 14 0
65 14 0
66 14 0
67 14 0
68 14 0
69 14 0
70 14 0
71 14 0
72 14 0
73 14 0
74 14 0
75 14 0
76 14 0
77 14 0
78 14 0
79 14 0
0 15 0
1 15 0
2 15 0
3 15 0
4 15 0
5 15 0
6 15 0
7 15 0
8 15 0
9 15 0
10 15 0
11 15 0
12 15 0
13 15 0
14 15 0
15 15 0
16 15 0
17 15 0
18 15 0
19 15 0
20 15 0
21 15 0
22 15 0
23 15 0
24 15 0
25 15 0
26 15 0
27 15 0
28 15 0
29 15 0
30 15 0
31 15 0
32 15 0
33 15 0
34 15 0
35 15 0
36 15 0
37 15 0
38 15 0
39 15 0
40 15 0
41 15 0
42 15 0
43 15 0
44 15 0
45 15 0
46 15 0
47 15 0
48 15 0
49 15 0
50 15 0
51 15 0
52 15 0
53 15 0
54 15 0
55 15 0
56 15 0
57 15 0
58 15 0
59 15 0
60 15 0
61 15 0
62 15 0
63 15 0
64 15 0
65 15 0
66 15 0
67 15 0
68 15 0
69 15 0
70 15 0
71 15 0
72 15 0
73 15 0
74 15 0
75 15 0
76 15 0
77 15 0
78 15 0
79 15 0
0 16 0
1 16 0
2 16 0
3 16 0
4 16 0
5 16 0
6 16 0
7 16 0
8 16 0
9 16 0
10 16 0
11 16 0
12 16 0
13 16 0
14 16 0
15 16 0
16 16 0
17 16 0
18 16 0
19 16 0
20 16 0
21 16 0
22 16 0
23 16 0
24 16 0
25 16 0
26 16 0
27 16 0
28 16 0
29 16 0
30 16 0
31 16 0
32 16 0
33 16 0
34 16 0
35 16 0
36 16 0
37 16 0
38 16 0
39 16 0
40 16 0
41 16 0
42 16 0
43 16 0
44 16 0
45 16 0
46 16 0
47 16 0
48 16 0
49 16 0
50 16 0
51 16 0
52 16 0
53 16 0
54 16 0
55 16 0
56 16 0
57 16 0
58 16 0
59 16 0
60 16 0
61 16 0
62 16 0
63 16 0
64 16 0
65 16 0
66 16 0
67 16 0
68 16 0
69 16 0
70 16 0
71 16 0
72 16 0
73 16 0
74 16 0
75 16 0
[...]
POINT_DATA 6400
SCALARS Intensity float
LOOKUP_TABLE default
4.30765e-16
1.7242e-15
5.81402e-15
2.31617e-14
6.65561e-14
1.67319e-13
3.08853e-13
5.01761e-13
7.96677e-13
6.86837e-13
2.39896e-13
3.32969e-13
8.69051e-13
1.14614e-12
1.61886e-12
1.77281e-12
1.58894e-12
1.93038e-12
2.80702e-12
4.61857e-12
6.42832e-12
7.47538e-12
2.26226e-11
1.0352e-10
1.79988e-10
2.26795e-10
3.30942e-10
5.72425e-10
9.8599e-10
1.46676e-09
1.90759e-09
2.28013e-09
2.63022e-09
2.98872e-09
3.34875e-09
3.67994e-09
3.9202e-09
4.0975e-09
4.18824e-09
4.17952e-09
4.08857e-09
3.94673e-09
3.7033e-09
3.41055e-09
3.06592e-09
2.67383e-09
2.28197e-09
1.91506e-09
1.57985e-09
1.25221e-09
9.11199e-10
5.63284e-10
3.00114e-10
1.54511e-10
8.89908e-11
5.75193e-11
2.39361e-11
4.12673e-12
1.87667e-12
1.57853e-12
1.09598e-12
6.57842e-13
4.11428e-13
3.07015e-13
4.55136e-13
1.00285e-12
7.07717e-13
4.6156e-13
2.13985e-13
8.70772e-14
6.82089e-14
4.80396e-13
2.13211e-13
4.0496e-14
2.26916e-14
9.36651e-15
3.75175e-15
9.99371e-16
2.66229e-16
5.27592e-17
1.79291e-15
6.41459e-15
2.6508e-14
7.6281e-14
1.91646e-13
3.32013e-13
4.12189e-13
6.02141e-13
9.69392e-13
2.26958e-13
2.92934e-13
7.33729e-13
1.10172e-12
1.69525e-12
2.15093e-12
1.96784e-12
2.70479e-12
4.81307e-12
7.22479e-12
9.07527e-12
5.09932e-11
1.65986e-10
2.26977e-10
3.39885e-10
6.74634e-10
1.28711e-09
1.96219e-09
2.55558e-09
3.19955e-09
4.01309e-09
4.8748e-09
5.57267e-09
6.0717e-09
6.49368e-09
6.86592e-09
7.19627e-09
7.43352e-09
7.62775e-09
7.7524e-09
7.71874e-09
7.54677e-09
7.28932e-09
6.89932e-09
6.45247e-09
5.9656e-09
5.45055e-09
4.95771e-09
4.47296e-09
3.9519e-09
3.34814e-09
2.64471e-09
2.0024e-09
1.503e-09
1.07978e-09
6.45774e-10
3.07093e-10
1.31378e-10
7.12245e-11
3.7783e-11
7.34937e-12
1.88172e-12
1.56465e-12
1.03752e-12
5.62577e-13
3.7407e-13
5.12319e-13
1.03806e-12
7.60695e-13
6.30388e-13
1.53456e-13
7.96751e-14
4.17159e-13
3.17724e-13
9.25658e-14
3.53236e-14
2.22552e-14
9.26854e-15
4.06492e-15
1.05852e-15
2.72835e-16
6.59427e-15
2.8267e-14
8.27632e-14
2.07015e-13
3.49018e-13
4.14668e-13
3.89424e-13
6.64961e-13
5.39442e-13
3.12167e-13
5.53384e-13
1.10871e-12
2.01158e-12
2.50391e-12
2.53577e-12
4.06196e-12
7.07307e-12
9.20911e-12
6.50034e-11
1.94278e-10
2.63539e-10
4.88702e-10
1.1077e-09
1.96434e-09
2.73215e-09
3.671e-09
4.92235e-09
6.07253e-09
6.88876e-09
7.79934e-09
8.94087e-09
1.01929e-08
1.14134e-08
1.25148e-08
1.33513e-08
1.39778e-08
1.44199e-08
1.46924e-08
1.47571e-08
1.45812e-08
1.43198e-08
1.38189e-08
1.31599e-08
1.24931e-08
1.15832e-08
1.06775e-08
9.52861e-09
8.33706e-09
7.17667e-09
6.06344e-09
5.11358e-09
4.34954e-09
3.64855e-09
2.88706e-09
2.04301e-09
1.42779e-09
9.39501e-10
4.7587e-10
1.8015e-10
7.69194e-11
4.04728e-11
8.15277e-12
1.73494e-12
1.35616e-12
7.82218e-13
4.40866e-13
6.22427e-13
9.35803e-13
6.7062e-13
4.69692e-13
1.1515e-13
6.48637e-14
4.81508e-13
2.06001e-13
4.23533e-14
3.21502e-14
2.07775e-14
9.36619e-15
4.12276e-15
1.04344e-15
2.81295e-14
8.47356e-14
2.14114e-13
3.61245e-13
3.96589e-13
2.89241e-13
4.36278e-13
9.25934e-13
2.83041e-13
4.54907e-13
1.51368e-12
2.42551e-12
3.22114e-12
3.3992e-12
5.83357e-12
9.11646e-12
5.10968e-11
1.99178e-10
2.78554e-10
5.69839e-10
1.38912e-09
2.38656e-09
3.36772e-09
4.85041e-09
6.35332e-09
7.52227e-09
9.02076e-09
1.09729e-08
1.31797e-08
1.51574e-08
1.69494e-08
1.83123e-08
1.89957e-08
1.95468e-08
2.00757e-08
2.04807e-08
2.06145e-08
2.06105e-08
2.02713e-08
2.01412e-08
1.93476e-08
1.89685e-08
1.82527e-08
1.72404e-08
1.63545e-08
1.54826e-08
1.45455e-08
1.3563e-08
1.26032e-08
1.12682e-08
9.70873e-09
8.11544e-09
6.55656e-09
5.19727e-09
4.19417e-09
3.41935e-09
2.52246e-09
1.65421e-09
1.07099e-09
5.58176e-10
1.94326e-10
7.23187e-11
3.45113e-11
4.96701e-12
1.56862e-12
1.01104e-12
5.40205e-13
7.61136e-13
8.43304e-13
6.56053e-13
2.50013e-13
9.54827e-14
4.32932e-13
2.75845e-13
5.85802e-14
3.46624e-14
2.86679e-14
1.96878e-14
9.13296e-15
3.92919e-15
8.19189e-14
2.12941e-13
3.65072e-13
3.9116e-13
2.77186e-13
2.11216e-13
5.83338e-13
8.86774e-13
5.38658e-13
1.30845e-12
2.20924e-12
3.42392e-12
4.72289e-12
7.18934e-12
2.18777e-11
1.69702e-10
2.69843e-10
5.32605e-10
1.43415e-09
2.56556e-09
3.76765e-09
5.64269e-09
7.20792e-09
8.87827e-09
1.1386e-08
1.44077e-08
1.71813e-08
1.97672e-08
2.11386e-08
2.25592e-08
2.40255e-08
2.52014e-08
2.59735e-08
2.64595e-08
2.71698e-08
2.78475e-08
2.82325e-08
2.83238e-08
2.7731e-08
2.74625e-08
2.66813e-08
2.55266e-08
2.44271e-08
2.33204e-08
2.18149e-08
2.00208e-08
1.86467e-08
1.74975e-08
1.63013e-08
1.50569e-08
1.37518e-08
1.23979e-08
1.14003e-08
9.64758e-09
7.78115e-09
6.05319e-09
4.56755e-09
3.58601e-09
2.70712e-09
1.71697e-09
1.05863e-09
5.19834e-10
1.58913e-10
5.75703e-11
2.21284e-11
2.0431e-12
1.15879e-12
7.20925e-13
1.10752e-12
9.96629e-13
7.50195e-13
1.62912e-13
7.7793e-14
4.34518e-13
1.34472e-13
2.93436e-14
3.07207e-14
2.5635e-14
1.85198e-14
8.49648e-15
2.02353e-13
3.59298e-13
4.02193e-13
2.8099e-13
1.93271e-13
3.2599e-13
8.84195e-13
4.77414e-13
1.03771e-12
2.67189e-12
3.947e-12
6.00624e-12
8.85447e-12
9.01002e-11
2.44738e-10
4.09166e-10
1.17857e-09
2.45402e-09
3.75997e-09
5.88123e-09
7.68697e-09
9.92392e-09
1.32334e-08
1.6993e-08
2.04309e-08
2.24902e-08
2.51097e-08
2.71757e-08
2.87687e-08
3.09988e-08
3.34676e-08
3.52378e-08
3.69895e-08
3.89554e-08
4.01837e-08
4.12164e-08
4.16303e-08
4.14794e-08
4.08358e-08
4.03651e-08
3.90757e-08
3.73979e-08
3.55986e-08
3.39965e-08
3.18968e-08
2.91384e-08
2.66141e-08
2.41109e-08
2.16557e-08
1.9634e-08
1.74507e-08
1.56131e-08
1.43275e-08
1.30276e-08
1.15426e-08
1.03204e-08
8.39046e-09
6.45205e-09
4.68509e-09
3.51864e-09
2.62667e-09
1.58433e-09
9.23102e-10
3.79026e-10
1.01377e-10
3.90677e-11
6.98429e-12
1.29334e-12
9.78752e-13
1.08518e-12
8.03442e-13
5.00464e-13
1.30047e-13
5.49017e-13
2.24579e-13
2.47556e-14
2.53373e-14
2.7209e-14
2.37967e-14
1.68439e-14
3.43675e-13
4.33644e-13
2.97277e-13
1.95264e-13
2.02407e-13
5.17301e-13
1.26087e-12
1.04703e-12
2.30076e-12
3.97856e-12
6.98608e-12
1.74381e-11
1.82184e-10
2.99927e-10
7.38213e-10
2.0484e-09
3.37935e-09
5.56157e-09
7.67295e-09
1.0237e-08
1.41782e-08
1.86554e-08
2.21883e-08
2.50211e-08
2.84927e-08
3.10483e-08
3.43791e-08
3.74017e-08
4.16538e-08
4.54116e-08
4.881e-08
5.11804e-08
5.33521e-08
5.48247e-08
5.45258e-08
5.37632e-08
5.28306e-08
5.03221e-08
4.92072e-08
4.79715e-08
4.56426e-08
4.44422e-08
4.31362e-08
4.24083e-08
4.14167e-08
3.91726e-08
3.76062e-08
3.49948e-08
3.15742e-08
2.82125e-08
2.47652e-08
2.13544e-08
1.84952e-08
1.63323e-08
1.42774e-08
1.29907e-08
1.14631e-08
1.01676e-08
8.39706e-09
6.29841e-09
4.47081e-09
3.24866e-09
2.29276e-09
1.29056e-09
6.80811e-10
2.00146e-10
5.54293e-11
1.79062e-11
1.46688e-12
1.22629e-12
1.2609e-12
9.00732e-13
2.5629e-13
3.2596e-13
3.18877e-13
3.78282e-14
1.7872e-14
2.25102e-14
2.57533e-14
2.12884e-14
4.366e-13
3.39106e-13
1.99316e-13
1.94415e-13
2.60507e-13
8.57538e-13
1.82059e-12
2.10694e-12
4.19565e-12
7.8638e-12
4.55017e-11
2.42573e-10
3.96199e-10
1.27552e-09
2.77735e-09
4.60921e-09
7.18618e-09
9.6255e-09
1.378e-08
1.8896e-08
2.30445e-08
2.68307e-08
3.07439e-08
3.46539e-08
3.88178e-08
4.32888e-08
5.05998e-08
5.51001e-08
5.89408e-08
6.15428e-08
6.21465e-08
5.92951e-08
5.65766e-08
5.49312e-08
5.56905e-08
5.58395e-08
5.45526e-08
5.49507e-08
5.45891e-08
5.21531e-08
5.08692e-08
4.92155e-08
4.6983e-08
4.45408e-08
4.2444e-08
3.97609e-08
3.85019e-08
3.60162e-08
3.50783e-08
3.48076e-08
3.32463e-08
3.05098e-08
2.6557e-08
2.2992e-08
1.91753e-08
1.6269e-08
1.40467e-08
1.24389e-08
1.10245e-08
9.58992e-09
7.89648e-09
5.74817e-09
3.90917e-09
2.82476e-09
1.75635e-09
9.34907e-10
3.60372e-10
8.12284e-11
2.74855e-11
2.48705e-12
1.5181e-12
1.15184e-12
6.33332e-13
1.84023e-13
4.75084e-13
9.58114e-14
1.76074e-14
1.57487e-14
2.10185e-14
2.69948e-14
3.63584e-13
2.11215e-13
1.97813e-13
2.41296e-13
5.2336e-13
1.57232e-12
1.95929e-12
3.80367e-12
8.28173e-12
8.45025e-11
2.71229e-10
5.50299e-10
1.86303e-09
3.4318e-09
6.02501e-09
8.51011e-09
1.23014e-08
1.7948e-08
2.30652e-08
2.75312e-08
3.20116e-08
3.69033e-08
4.23513e-08
4.90761e-08
5.65756e-08
6.28086e-08
6.6383e-08
6.65358e-08
6.29851e-08
6.23485e-08
6.39671e-08
6.58361e-08
6.73574e-08
6.82529e-08
6.78855e-08
6.53638e-08
6.72785e-08
6.40649e-08
6.34244e-08
6.26516e-08
6.13247e-08
5.97571e-08
5.67843e-08
5.30048e-08
5.01342e-08
4.88115e-08
4.57967e-08
4.37281e-08
4.0704e-08
3.73771e-08
3.40579e-08
3.21311e-08
3.14279e-08
3.05032e-08
2.71798e-08
2.32292e-08
1.91157e-08
1.56263e-08
1.34292e-08
1.17389e-08
1.03614e-08
8.91061e-09
6.89115e-09
4.78459e-09
3.20309e-09
2.21727e-09
1.15579e-09
5.34757e-10
1.18334e-10
3.34162e-11
4.54982e-12
1.68937e-12
1.02167e-12
4.03444e-13
6.54093e-13
2.12831e-13
2.24666e-14
1.47855e-14
1.35268e-14
2.34419e-14
2.46458e-13
1.85443e-13
2.32593e-13
4.279e-13
9.80174e-13
2.4689e-12
3.85341e-12
8.2623e-12
1.20364e-10
2.95343e-10
7.36105e-10
2.33798e-09
4.14331e-09
7.12675e-09
1.00321e-08
1.52746e-08
2.16641e-08
2.6425e-08
3.2112e-08
3.70314e-08
4.32658e-08
5.19953e-08
6.07264e-08
6.78037e-08
7.10435e-08
6.74047e-08
6.79348e-08
7.14458e-08
7.65042e-08
7.50729e-08
7.54508e-08
7.80133e-08
8.23016e-08
8.81606e-08
9.35096e-08
9.62151e-08
9.95917e-08
1.01347e-07
1.01158e-07
9.99572e-08
9.6594e-08
9.21298e-08
8.54949e-08
7.94769e-08
7.34545e-08
6.58407e-08
5.99527e-08
5.18331e-08
4.64531e-08
4.27883e-08
4.03132e-08
3.77641e-08
3.43487e-08
3.09775e-08
2.83213e-08
2.89277e-08
2.62921e-08
2.21909e-08
1.80229e-08
1.43987e-08
1.22068e-08
1.07339e-08
9.28695e-09
7.8145e-09
5.57533e-09
3.62415e-09
2.49702e-09
1.38307e-09
6.65849e-10
1.62235e-10
3.76929e-11
6.56958e-12
1.69706e-12
7.85656e-13
7.13344e-13
3.21962e-13
3.73889e-14
1.64617e-14
1.22917e-14
1.38119e-14
1.80955e-13
2.61405e-13
3.37327e-13
7.95539e-13
1.83828e-12
4.07688e-12
7.21265e-12
1.38846e-10
3.13977e-10
9.06027e-10
2.66359e-09
4.85697e-09
7.90114e-09
1.17606e-08
1.82412e-08
2.44031e-08
3.04988e-08
3.60161e-08
4.2369e-08
5.08948e-08
6.22478e-08
7.07317e-08
7.4485e-08
7.05659e-08
7.49677e-08
7.99452e-08
8.10536e-08
8.53211e-08
8.85755e-08
9.98237e-08
1.1159e-07
1.26875e-07
1.41207e-07
1.53471e-07
1.63544e-07
1.67854e-07
1.71244e-07
1.72469e-07
1.70299e-07
1.66493e-07
1.61679e-07
1.5477e-07
1.45444e-07
1.34775e-07
1.23534e-07
1.12342e-07
9.85621e-08
8.70778e-08
7.25869e-08
6.07038e-08
5.19742e-08
4.41582e-08
4.04106e-08
3.6478e-08
3.38092e-08
3.00518e-08
2.713e-08
2.67207e-08
2.46388e-08
2.03528e-08
1.61433e-08
1.30831e-08
1.10128e-08
9.61362e-09
8.10946e-09
6.21544e-09
4.06276e-09
2.66411e-09
1.58375e-09
7.44295e-10
1.99083e-10
4.03014e-11
7.7075e-12
1.21122e-12
7.32568e-13
4.64493e-13
8.14603e-14
2.40474e-14
1.36485e-14
1.01828e-14
2.13568e-13
2.81747e-13
8.10828e-13
1.47428e-12
3.04567e-12
7.07116e-12
1.41266e-10
3.24397e-10
1.00343e-09
2.85382e-09
5.41424e-09
8.51517e-09
1.33684e-08
2.06751e-08
2.67966e-08
3.37661e-08
4.01384e-08
4.80564e-08
6.04358e-08
7.09961e-08
7.7778e-08
7.37509e-08
7.80593e-08
8.40015e-08
8.54308e-08
9.13595e-08
1.06847e-07
1.23917e-07
1.48885e-07
1.72981e-07
1.93564e-07
2.10699e-07
2.24259e-07
2.41707e-07
2.55287e-07
2.5542e-07
2.53395e-07
2.47175e-07
2.40793e-07
2.34871e-07
2.24909e-07
2.16026e-07
2.05927e-07
1.9544e-07
1.84518e-07
1.76766e-07
1.5556e-07
1.344e-07
1.18518e-07
1.02081e-07
8.59603e-08
7.0146e-08
5.61147e-08
4.62459e-08
3.8319e-08
3.42506e-08
3.31817e-08
2.85148e-08
2.48142e-08
2.51281e-08
2.20311e-08
1.76758e-08
1.35111e-08
1.14468e-08
9.81221e-09
8.28831e-09
6.6725e-09
4.39847e-09
2.76584e-09
1.71749e-09
7.80559e-10
2.13933e-10
3.95851e-11
6.96631e-12
1.10627e-12
6.59214e-13
1.67814e-13
5.26389e-14
1.70985e-14
1.08236e-14
2.83801e-13
5.28721e-13
1.19105e-12
2.51484e-12
5.39998e-12
1.25204e-10
3.19011e-10
1.00329e-09
2.94618e-09
5.75018e-09
8.98265e-09
1.47296e-08
2.2542e-08
2.92652e-08
3.63615e-08
4.37912e-08
5.41836e-08
6.76023e-08
7.85112e-08
7.71914e-08
7.94259e-08
8.89393e-08
9.26895e-08
9.98676e-08
1.19328e-07
1.44244e-07
1.80696e-07
2.12789e-07
2.38693e-07
2.69465e-07
2.98209e-07
2.99042e-07
3.07548e-07
3.19577e-07
3.37869e-07
3.36418e-07
3.36985e-07
3.33953e-07
3.239e-07
3.13785e-07
3.03908e-07
2.96275e-07
2.89392e-07
2.76918e-07
2.57463e-07
2.35046e-07
2.06743e-07
1.83757e-07
1.64811e-07
1.52455e-07
1.32246e-07
1.09242e-07
9.14323e-08
7.34203e-08
5.70041e-08
4.49197e-08
3.72948e-08
3.2257e-08
2.98241e-08
2.58225e-08
2.35041e-08
2.29427e-08
1.8786e-08
1.45788e-08
1.1366e-08
9.77613e-09
8.34442e-09
6.89942e-09
4.57497e-09
2.81278e-09
1.75086e-09
7.74789e-10
2.04464e-10
3.59685e-11
5.19685e-12
1.06844e-12
2.65516e-13
1.17461e-13
3.27262e-14
1.31885e-14
3.74861e-13
1.18496e-12
2.05526e-12
4.03431e-12
8.93844e-11
3.08581e-10
9.13476e-10
2.89715e-09
5.79285e-09
9.20054e-09
1.53415e-08
2.36786e-08
3.123e-08
3.88099e-08
4.7009e-08
6.07729e-08
7.4175e-08
8.33048e-08
8.01999e-08
8.81647e-08
9.53289e-08
9.92841e-08
1.20834e-07
1.54214e-07
1.98134e-07
2.38439e-07
2.75936e-07
3.24186e-07
3.35108e-07
3.5282e-07
3.66499e-07
3.66879e-07
3.66066e-07
3.28571e-07
2.94954e-07
2.86655e-07
2.69738e-07
2.48259e-07
2.31006e-07
2.18474e-07
2.09131e-07
2.05753e-07
2.03853e-07
2.07471e-07
2.08301e-07
2.03448e-07
2.14908e-07
2.34237e-07
2.24998e-07
1.96002e-07
1.71814e-07
1.48436e-07
1.35937e-07
1.10284e-07
9.03727e-08
7.14733e-08
5.37675e-08
4.13813e-08
3.32055e-08
2.95907e-08
2.73455e-08
2.32691e-08
2.29092e-08
1.94467e-08
1.51566e-08
1.13988e-08
9.69357e-09
8.28304e-09
6.84393e-09
4.62378e-09
2.77957e-09
1.70294e-09
7.28226e-10
1.73461e-10
2.96815e-11
3.46774e-12
4.76124e-13
1.81078e-13
7.41364e-14
2.33938e-14
6.78101e-13
1.66355e-12
3.26953e-12
4.81527e-11
2.95594e-10
7.47578e-10
2.7168e-09
5.57873e-09
9.12432e-09
1.54563e-08
2.44159e-08
3.24679e-08
4.06119e-08
4.95998e-08
6.49902e-08
7.97364e-08
8.27216e-08
8.51752e-08
9.40849e-08
9.88011e-08
1.171e-07
1.50731e-07
2.0308e-07
2.50301e-07
3.02741e-07
3.53343e-07
3.72315e-07
3.95932e-07
3.75908e-07
3.70553e-07
3.34961e-07
3.22638e-07
2.79081e-07
2.59072e-07
2.69032e-07
2.80801e-07
2.88347e-07
2.87864e-07
2.75481e-07
2.61719e-07
2.51825e-07
2.45137e-07
2.36072e-07
2.20679e-07
1.98146e-07
1.75071e-07
1.56119e-07
1.53854e-07
1.71936e-07
1.76999e-07
1.98238e-07
1.86063e-07
1.66617e-07
1.45521e-07
1.29684e-07
1.05497e-07
8.34235e-08
6.36631e-08
4.68281e-08
3.63176e-08
2.95062e-08
2.81835e-08
2.36113e-08
2.13178e-08
1.99925e-08
1.54212e-08
1.1365e-08
9.55765e-09
8.11637e-09
6.65487e-09
4.49452e-09
2.65291e-09
1.57661e-09
6.47428e-10
1.27684e-10
2.36642e-11
1.38054e-12
3.07724e-13
1.42552e-13
4.47317e-14
1.39527e-12
2.68026e-12
1.53936e-11
2.62262e-10
5.60704e-10
2.39753e-09
5.05547e-09
8.77474e-09
1.52039e-08
2.439e-08
3.33861e-08
4.16694e-08
5.14036e-08
6.78322e-08
8.39751e-08
8.24054e-08
9.18854e-08
9.76571e-08
1.0756e-07
1.36282e-07
1.87756e-07
2.48415e-07
3.02629e-07
3.71487e-07
3.95161e-07
4.1106e-07
3.84245e-07
3.60519e-07
3.50792e-07
3.06199e-07
3.04563e-07
3.35948e-07
3.42602e-07
3.38755e-07
3.85983e-07
6.61413e-07
1.08503e-06
1.40273e-06
1.5519e-06
1.57198e-06
1.50346e-06
1.36452e-06
1.13398e-06
8.15723e-07
4.62468e-07
2.34764e-07
1.91349e-07
1.84828e-07
1.74243e-07
1.46852e-07
1.34507e-07
1.54037e-07
1.73649e-07
1.67686e-07
1.50122e-07
1.35791e-07
1.18724e-07
9.28525e-08
7.22172e-08
5.35889e-08
3.83384e-08
3.04217e-08
2.68097e-08
2.43902e-08
2.03883e-08
2.00585e-08
1.52239e-08
1.11514e-08
9.28837e-09
7.9286e-09
6.49835e-09
4.24895e-09
2.46733e-09
1.37679e-09
5.32219e-10
8.33532e-11
1.53565e-11
6.35266e-13
2.28105e-13
9.15466e-14
1.96963e-12
4.78809e-12
2.01035e-10
4.19181e-10
1.89589e-09
4.34787e-09
8.26567e-09
1.42948e-08
2.39e-08
3.31216e-08
4.18612e-08
5.22549e-08
6.94565e-08
8.61961e-08
8.37929e-08
9.74696e-08
1.03178e-07
1.19936e-07
1.57201e-07
2.21491e-07
2.84717e-07
3.69146e-07
4.07108e-07
4.44564e-07
3.84712e-07
3.62889e-07
3.61524e-07
3.29917e-07
3.60033e-07
3.82082e-07
3.93001e-07
8.32248e-07
1.92642e-06
2.41464e-06
2.35505e-06
2.13776e-06
1.83594e-06
1.66744e-06
1.57252e-06
1.50564e-06
1.44255e-06
1.36723e-06
1.31934e-06
1.31245e-06
1.37943e-06
1.39344e-06
1.31211e-06
1.00961e-06
4.19818e-07
1.65009e-07
1.5983e-07
1.49067e-07
1.2718e-07
1.35617e-07
1.60331e-07
1.37489e-07
1.40713e-07
1.2047e-07
1.04583e-07
7.76351e-08
5.80759e-08
4.0817e-08
3.229e-08
2.57874e-08
2.36809e-08
2.00502e-08
1.95068e-08
1.4824e-08
1.07465e-08
8.88653e-09
7.51297e-09
6.12219e-09
3.87258e-09
2.22583e-09
1.11848e-09
3.86825e-10
4.88938e-11
7.80248e-12
3.86501e-13
1.5321e-13
2.945e-12
9.4531e-11
3.31233e-10
1.27799e-09
3.60726e-09
7.56953e-09
1.28125e-08
2.26237e-08
3.26981e-08
4.15552e-08
5.16559e-08
6.98084e-08
8.7835e-08
8.64464e-08
9.87417e-08
1.03182e-07
1.27235e-07
1.76021e-07
2.50793e-07
3.241e-07
4.09666e-07
4.49394e-07
4.11003e-07
3.58047e-07
3.83204e-07
3.60287e-07
3.94007e-07
4.13173e-07
5.02096e-07
1.90565e-06
2.78745e-06
2.58257e-06
2.07912e-06
2.15927e-06
2.50967e-06
3.09011e-06
3.58144e-06
3.82969e-06
3.91652e-06
3.8741e-06
3.71566e-06
3.43289e-06
3.04619e-06
2.63606e-06
2.11652e-06
1.58698e-06
1.23684e-06
1.03971e-06
1.12896e-06
1.14352e-06
7.88942e-07
1.88433e-07
1.38081e-07
1.3672e-07
1.19585e-07
1.32572e-07
1.40672e-07
1.19628e-07
1.27435e-07
1.07348e-07
8.17894e-08
6.15392e-08
4.30574e-08
3.16221e-08
2.58659e-08
2.3603e-08
1.96805e-08
1.89232e-08
1.4233e-08
1.02322e-08
8.56088e-09
7.21321e-09
5.71874e-09
3.42366e-09
1.95686e-09
8.58189e-10
2.28828e-10
2.80655e-11
2.08433e-12
2.71887e-13
1.99352e-11
2.85308e-10
7.34308e-10
2.94479e-09
6.58098e-09
1.09754e-08
2.03538e-08
3.087e-08
4.03733e-08
5.03965e-08
6.95118e-08
8.88826e-08
8.76346e-08
1.00684e-07
1.08828e-07
1.33159e-07
1.90769e-07
2.71295e-07
3.62621e-07
4.3565e-07
4.82918e-07
3.86007e-07
3.65178e-07
3.84011e-07
4.10239e-07
4.37254e-07
5.03304e-07
2.28448e-06
3.10914e-06
2.48425e-06
2.49175e-06
3.26302e-06
4.67255e-06
5.87615e-06
8.25186e-06
9.97349e-06
9.29211e-06
7.51673e-06
5.94645e-06
5.0043e-06
4.69361e-06
5.00981e-06
5.73736e-06
6.5893e-06
6.68787e-06
5.31445e-06
3.38272e-06
2.4081e-06
1.61676e-06
1.10014e-06
9.17345e-07
1.03129e-06
7.85955e-07
1.56254e-07
1.29091e-07
1.23117e-07
1.14429e-07
1.40575e-07
9.86753e-08
1.24053e-07
1.06078e-07
8.56086e-08
6.26749e-08
4.34226e-08
3.13432e-08
2.5142e-08
2.31652e-08
1.90697e-08
1.83397e-08
1.32954e-08
9.68608e-09
8.01642e-09
6.75946e-09
5.0688e-09
2.8806e-09
1.65461e-09
6.30044e-10
1.08199e-10
1.60651e-11
5.08216e-13
1.86051e-10
4.30125e-10
2.09334e-09
5.00834e-09
9.25571e-09
1.74276e-08
2.83515e-08
3.84361e-08
4.81666e-08
6.65691e-08
8.753e-08
8.78514e-08
1.02143e-07
1.10565e-07
1.3512e-07
2.01046e-07
2.83896e-07
3.91609e-07
4.56823e-07
4.69422e-07
3.57508e-07
3.76381e-07
4.23746e-07
4.39645e-07
4.22082e-07
1.7526e-06
3.3456e-06
2.72783e-06
2.84265e-06
4.51597e-06
6.60031e-06
1.07492e-05
1.02288e-05
4.72584e-06
1.79066e-06
1.2675e-06
1.13386e-06
1.09871e-06
1.14172e-06
1.16802e-06
1.11671e-06
9.93083e-07
8.57283e-07
7.65749e-07
7.80419e-07
9.13573e-07
2.05507e-06
4.69532e-06
5.28492e-06
2.93751e-06
1.83817e-06
1.06275e-06
8.36758e-07
9.34937e-07
5.33824e-07
9.96086e-08
1.17531e-07
1.15234e-07
1.31073e-07
8.59875e-08
1.10834e-07
1.04804e-07
8.67241e-08
6.11399e-08
4.25743e-08
3.03038e-08
2.39187e-08
2.22899e-08
1.8314e-08
1.70958e-08
1.22089e-08
8.89821e-09
7.55454e-09
6.256e-09
4.26509e-09
2.33962e-09
1.22374e-09
4.03903e-10
4.5117e-11
5.616e-12
3.2097e-10
1.14136e-09
3.61545e-09
7.83469e-09
1.42495e-08
2.5423e-08
3.61741e-08
4.61208e-08
6.2431e-08
8.3843e-08
9.09656e-08
1.02324e-07
1.11422e-07
1.34976e-07
2.01447e-07
2.93706e-07
4.0789e-07
4.74205e-07
4.64864e-07
3.48932e-07
3.97235e-07
4.54864e-07
4.47757e-07
5.59627e-07
3.09366e-06
3.29868e-06
2.9216e-06
4.59546e-06
7.83675e-06
1.27004e-05
6.5883e-06
1.75134e-06
1.38822e-06
1.53359e-06
2.09888e-06
2.25672e-06
2.29057e-06
2.1304e-06
2.10862e-06
2.01402e-06
1.9643e-06
1.84176e-06
1.62911e-06
1.5576e-06
1.39614e-06
1.18097e-06
8.40821e-07
6.21824e-07
6.44251e-07
1.99997e-06
4.837e-06
3.02126e-06
1.62609e-06
8.99143e-07
7.86544e-07
7.74746e-07
1.44916e-07
1.0429e-07
1.10487e-07
1.26065e-07
7.85683e-08
1.02291e-07
1.02621e-07
8.50034e-08
5.90267e-08
4.07462e-08
2.87693e-08
2.29354e-08
2.1021e-08
1.7702e-08
1.5581e-08
1.11188e-08
8.2855e-09
6.98491e-09
5.65614e-09
3.51049e-09